<?xml version="1.0" encoding="UTF-8"?>

<configuration xmlns:xsi="http://www.w3.org/2001/XMLSchema-instance" xsi:noNamespaceSchemaLocation="http://sumo.sf.net/xsd/sumoConfiguration.xsd">
    <input>
        <net-file value="/root/Documents/SUMO_SEM/CATALUNYA/sim_files/catalunya.net.xml"/>
    </input>
    <processing>
        <time-to-teleport value="300"/>
        <time-to-teleport.highways value="0"/>
    </processing>
    <output>
	<fcd-output.geo value="false"/>
	<fcd-output.signals value="true"/>
	<vehroute-output.route-length value="true"/>
	<vehroute-output.cost value="true"/>	
	<fcd-output.distance value="true"/>
    </output>
    <report>
        <verbose value="false"/>
        <print-options value="false"/>
        <help value="false" />
        <no-warnings value="true"/>
        <aggregate-warnings value="-1"/>
        <log value=""/>
        <no-step-log value="true"/>
    </report>
    <time>
        <begin value="0"/>
        <end value="172800"/>
        <step-length value="1"/>
    </time>
</configuration>
